48   
Dihedral (-150, -45) Energy -1439.218356750
C        0.0954225544    0.1306755058    0.1013117028
C        0.9937087627    1.0044063470    0.7302073216
C        1.5652653559    0.7030732019    1.9685567353
C        1.3180988865   -0.5306385524    2.5741579741
C        0.5221932392   -1.4662364813    1.9114681073
C       -0.0750207230   -1.1434691870    0.6863519895
S       -1.0981539283   -2.4086252401   -0.0464420263
C       -1.0645941171   -1.9904681220   -1.7732733423
C       -1.3432946370   -2.9938632187   -2.7091164411
C       -1.5065817870   -2.6644481251   -4.0583353703
C       -1.3722526950   -1.3365224745   -4.4755009461
C       -1.0650728855   -0.3462022132   -3.5389309849
C       -0.9462977501   -0.6475459150   -2.1750118743
C       -0.6027827908    0.4299840249   -1.2115575849
C       -1.8967808113    0.8525474265   -0.7086049043
C       -2.0482356338    1.8890414797    0.3374505462
C       -1.3178849009    3.1041210975    0.5356682064
C       -0.3663272602    3.6158908290   -0.3889997392
C        0.2633057753    4.8225045896   -0.1636638038
C       -0.0161752930    5.5731204650    1.0069549777
C       -0.9696570033    5.1273433040    1.8973418315
C       -1.6708830934    3.9105568910    1.6687829671
C       -2.7546112568    3.5194739147    2.5067241566
C       -3.5404560215    2.4268296138    2.1949178604
C       -3.1961566700    1.6373141042    1.0796476174
C       -3.9722785715    0.5250007317    0.4308706832
C       -3.3708152535    0.4777255007   -1.0125702535
C       -3.8617034618   -0.7650628024   -1.7544162249
H        2.2201888802    1.4275016968    2.4452559770
H        1.2362405209    1.9452784390    0.2558756265
H       -1.4476841283   -4.0251681664   -2.3813716901
H       -1.7312439335   -3.4468956329   -4.7782600474
H       -1.4888268651   -1.0771619872   -5.5242729804
H       -0.9289293592    0.6850728668   -3.8546292743
H       -5.0505916314    0.7136208806    0.4199130773
H       -3.8045544566   -0.4435449181    0.9187707757
H       -3.7782163846    1.3531396867   -1.5394558252
H       -3.5681259659   -1.6860736335   -1.2515564697
H       -4.9580166842   -0.7288049178   -1.7519709984
H       -3.5375179489   -0.8095898666   -2.7936026252
H        1.7645403154   -0.7799268592    3.5330779032
H       -0.1472699934    3.0401356600   -1.2821871753
H       -4.4172582804    2.1857221783    2.7911630573
H        0.9783263877    5.2032417344   -0.8886292710
H       -1.2205159992    5.7184809463    2.7752647960
H       -2.9936916364    4.1373962544    3.3693488603
H        0.5029366119    6.5113569487    1.1843816992
H        0.3686287798   -2.4540694665    2.3388104322
48   
Dihedral (-150, -40) Energy -1439.231101050
C        0.1669158644    0.1130738151    0.0681287829
C        1.1089400179    0.9675008134    0.6576293462
C        1.7198284263    0.6621075238    1.8761404270
C        1.4556993278   -0.5576905987    2.5023066627
C        0.6032398466   -1.4731240069    1.8830737426
C       -0.0287290783   -1.1461980960    0.6765863236
S       -1.1265598605   -2.3764432510   -0.0045739985
C       -1.0619384529   -2.0053145633   -1.7410055633
C       -1.3422404761   -3.0192688031   -2.6651369309
C       -1.4581101389   -2.7153454984   -4.0253904410
C       -1.2742318835   -1.4010462176   -4.4657964446
C       -0.9721557676   -0.4000820653   -3.5393906459
C       -0.8994473780   -0.6754457870   -2.1664963558
C       -0.5801295038    0.4183878044   -1.2128892978
C       -1.8379069065    0.9157317513   -0.7462457990
C       -1.9540924184    1.9676576481    0.2871272989
C       -1.1780573704    3.1544887406    0.4741289989
C       -0.2025442105    3.6162678999   -0.4526342680
C        0.4714466010    4.8010868284   -0.2410587073
C        0.2136986452    5.5788495373    0.9171211201
C       -0.7623493093    5.1832301047    1.8067451373
C       -1.5096321697    3.9914613035    1.5916183617
C       -2.6176793462    3.6572298167    2.4221439478
C       -3.4443249416    2.5927761621    2.1163755886
C       -3.1203719242    1.7725551437    1.0171734647
C       -3.9321518852    0.6817320638    0.3719330203
C       -3.3186657729    0.5966184238   -1.0657398304
C       -3.8282363837   -0.6439076370   -1.7980534958
H        2.4131792439    1.3708505868    2.3211260640
H        1.3572122616    1.8986636789    0.1671226093
H       -1.4806566162   -4.0407152780   -2.3199496124
H       -1.6828571386   -3.5071799034   -4.7350294963
H       -1.3525676683   -1.1607872040   -5.5226482737
H       -0.8064969352    0.6217842157   -3.8710575814
H       -5.0026153110    0.9098385334    0.3487100723
H       -3.8042813218   -0.2865297077    0.8724964844
H       -3.6941305244    1.4769236072   -1.6077234650
H       -3.5680538670   -1.5639643037   -1.2744090846
H       -4.9229909009   -0.5807618545   -1.8230262543
H       -3.4796445024   -0.7144836047   -2.8280126651
H        1.9306041264   -0.8122676186    3.4460398525
H       -0.0023356858    3.0207820667   -1.3373441161
H       -4.3371659410    2.3976224671    2.7056270243
H        1.2038441989    5.1445439100   -0.9673175514
H       -0.9961194679    5.7972973655    2.6735753879
H       -2.8415732283    4.2973259833    3.2726005018
H        0.7672638619    6.4990820218    1.0845355314
H        0.4322693023   -2.4496314484    2.3291376142
48   
Dihedral (-150, -35) Energy -1439.242460340
C        0.1535064960    0.1005069394    0.0712805376
C        1.1122690048    0.9594214325    0.6259313971
C        1.7698382902    0.6535258113    1.8197281105
C        1.5290899916   -0.5645749035    2.4584893180
C        0.6522289844   -1.4797050618    1.8740811409
C       -0.0229175559   -1.1567342381    0.6902036097
S       -1.1394906682   -2.3873062841    0.0423474648
C       -1.0693230973   -2.0332442398   -1.6967655451
C       -1.3173165790   -3.0569468279   -2.6193875504
C       -1.4074500519   -2.7644813191   -3.9841526345
C       -1.2296334708   -1.4511129739   -4.4298264249
C       -0.9652699378   -0.4391865702   -3.5040885894
C       -0.9174372176   -0.7045528953   -2.1280205775
C       -0.6534180238    0.4018752947   -1.1712513760
C       -1.8863407649    0.9378425492   -0.7365425070
C       -1.9994033482    1.9901365935    0.2958986639
C       -1.2098539686    3.1649947594    0.4940343281
C       -0.2227554831    3.6175464931   -0.4252605734
C        0.4646140174    4.7927405171   -0.2041212675
C        0.2088336927    5.5690342436    0.9557568151
C       -0.7792048001    5.1844003932    1.8368863933
C       -1.5408598481    4.0037361653    1.6106971827
C       -2.6635152658    3.6836300119    2.4267689191
C       -3.5024596921    2.6327328330    2.1064096717
C       -3.1779311274    1.8098013784    1.0094224978
C       -3.9946086982    0.7278799276    0.3533734200
C       -3.3630988583    0.6328473277   -1.0763774789
C       -3.8534789456   -0.6174406184   -1.8045836798
H        2.4789471357    1.3629925628    2.2378358600
H        1.3380635788    1.8926025970    0.1286958362
H       -1.4471490746   -4.0779244736   -2.2697475117
H       -1.6056380266   -3.5642025416   -4.6929123352
H       -1.2871366566   -1.2194591817   -5.4899313933
H       -0.8124910973    0.5835510599   -3.8392653248
H       -5.0620872154    0.9679849852    0.3161775350
H       -3.8842274208   -0.2405678773    0.8580476187
H       -3.7307589764    1.5088973205   -1.6301924791
H       -3.5831046524   -1.5307615224   -1.2736977368
H       -4.9487394379   -0.5706219064   -1.8394383667
H       -3.4939861503   -0.6896835784   -2.8309352094
H        2.0393024109   -0.8175922486    3.3840751492
H       -0.0275992431    3.0255647092   -1.3135766572
H       -4.4054490957    2.4499635875    2.6840693632
H        1.2053542695    5.1307104284   -0.9244841532
H       -1.0117392383    5.7991203093    2.7036238039
H       -2.8884719711    4.3243393249    3.2764874222
H        0.7732968343    6.4812617569    1.1304005065
H        0.4966550057   -2.4547250096    2.3286816293
48   
Dihedral (-150, -30) Energy -1439.252244400
C        0.1472968351    0.0955292954    0.0738741411
C        1.1241080383    0.9593312043    0.5871277301
C        1.8315441457    0.6592906393    1.7535954028
C        1.6148321209   -0.5545230466    2.4089239669
C        0.7140964921   -1.4726157529    1.8669759194
C       -0.0057944822   -1.1576775508    0.7077877963
S       -1.1375623520   -2.3930729150    0.0965957951
C       -1.0648140161   -2.0589576856   -1.6462917969
C       -1.2754977897   -3.0960744985   -2.5627540838
C       -1.3408059450   -2.8175157999   -3.9317563778
C       -1.1758281520   -1.5055240361   -4.3868509085
C       -0.9537498388   -0.4791245337   -3.4659502623
C       -0.9293304977   -0.7316925863   -2.0869884485
C       -0.7204862150    0.3842320496   -1.1272892276
C       -1.9274002320    0.9646447228   -0.7291961421
C       -2.0390593862    2.0163056275    0.3040172680
C       -1.2378893958    3.1789402354    0.5195117443
C       -0.2378091829    3.6270198591   -0.3877325354
C        0.4627781402    4.7912020541   -0.1513191628
C        0.2071203850    5.5605455984    1.0133805178
C       -0.7943140559    5.1819733132    1.8818894892
C       -1.5698388732    4.0136045890    1.6391221591
C       -2.7066659947    3.7030913207    2.4387556955
C       -3.5560401976    2.6662556869    2.0999349671
C       -3.2286127566    1.8463825285    1.0013982941
C       -4.0481861333    0.7734420793    0.3324985871
C       -3.3996877686    0.6719292539   -1.0892425877
C       -3.8706529251   -0.5867344382   -1.8151972953
H        2.5569946028    1.3708161101    2.1388830478
H        1.3270209868    1.8916053460    0.0788997796
H       -1.3917812023   -4.1160704815   -2.2057473565
H       -1.5083803606   -3.6272356195   -4.6370649510
H       -1.2137628112   -1.2855899888   -5.4503388954
H       -0.8181068893    0.5437891496   -3.8078537907
H       -5.1128409992    1.0236444553    0.2823893167
H       -3.9532784679   -0.1958253488    0.8390595166
H       -3.7601881060    1.5443465479   -1.6530775230
H       -3.5891462656   -1.4941054531   -1.2791990289
H       -4.9661500593   -0.5568047827   -1.8585896988
H       -3.5014025429   -0.6581783005   -2.8383975586
H        2.1618533516   -0.8021894803    3.3147243448
H       -0.0469732643    3.0434211082   -1.2826173583
H       -4.4684963641    2.4916613648    2.6651942623
H        1.2129394895    5.1265521944   -0.8631181600
H       -1.0270525704    5.7931583538    2.7510741659
H       -2.9335871501    4.3406025982    3.2903369668
H        0.7817184274    6.4638887743    1.2007249892
H        0.5762893382   -2.4445307727    2.3336143788
48   
Dihedral (-150, -25) Energy -1439.260189270
C        0.1325300344    0.0775958943    0.0431261012
C        1.1292587795    0.9457554672    0.5073111818
C        1.8870721678    0.6525167620    1.6434489093
C        1.6960213641   -0.5544718643    2.3192600623
C        0.7716916987   -1.4762680753    1.8253604594
C        0.0055989157   -1.1704569031    0.6939413246
S       -1.1408726049   -2.4117412098    0.1227139246
C       -1.0776821384   -2.0986684869   -1.6248723981
C       -1.2628121175   -3.1481336950   -2.5320870011
C       -1.3143584782   -2.8834431588   -3.9041747253
C       -1.1591578544   -1.5738587688   -4.3707756010
C       -0.9674860959   -0.5331811374   -3.4588788444
C       -0.9578162652   -0.7736322028   -2.0779285674
C       -0.7949885970    0.3451632699   -1.1135536476
C       -1.9721995805    0.9816849887   -0.7573440672
C       -2.0802020991    2.0312113317    0.2803191712
C       -1.2639538970    3.1768986942    0.5235249818
C       -0.2466472464    3.6227988064   -0.3648361903
C        0.4719331273    4.7701582179   -0.1021528453
C        0.2178952333    5.5244705623    1.0727695614
C       -0.8006332107    5.1502838151    1.9230733548
C       -1.5945392033    4.0004808606    1.6520100410
C       -2.7473848837    3.6992801351    2.4314281288
C       -3.6092702273    2.6821293710    2.0657671251
C       -3.2808435701    1.8711349649    0.9608902836
C       -4.1053267415    0.8110501543    0.2769408652
C       -3.4415236705    0.7052548274   -1.1369352985
C       -3.9003635793   -0.5581043709   -1.8621525587
H        2.6297406110    1.3657553263    1.9908584150
H        1.3113344466    1.8738380873   -0.0154538790
H       -1.3669643557   -4.1661423501   -2.1659792100
H       -1.4609707733   -3.7019341660   -4.6040212011
H       -1.1848536301   -1.3662049327   -5.4370986823
H       -0.8472119632    0.4886669963   -3.8096311593
H       -5.1668365629    1.0721375739    0.2161873746
H       -4.0258898316   -0.1603661182    0.7824793177
H       -3.7919855268    1.5767357177   -1.7081498955
H       -3.6122844004   -1.4618907494   -1.3226714918
H       -4.9957764707   -0.5387474362   -1.9123272874
H       -3.5237317660   -0.6294613588   -2.8827570111
H        2.2813258375   -0.7945418221    3.2029245006
H       -0.0617103681    3.0553758353   -1.2714220343
H       -4.5318610108    2.5144893645    2.6165609529
H        1.2345203470    5.1044641714   -0.8011422934
H       -1.0328971204    5.7516694566    2.7992092302
H       -2.9749877492    4.3283921602    3.2890315685
H        0.8065095753    6.4140282425    1.2814349695
H        0.6531176821   -2.4440841953    2.3054816022
48   
Dihedral (-150, -20) Energy -1439.266149610
C        0.1185102021    0.0725776995    0.0617080578
C        1.1373237115    0.9466783897    0.4612225672
C        1.9497900966    0.6692378413    1.5629717177
C        1.7870501546   -0.5228292854    2.2720824946
C        0.8373911411   -1.4509601309    1.8421346757
C        0.0215458961   -1.1631661536    0.7416118432
S       -1.1390188003   -2.4158952378    0.2247177269
C       -1.0824318474   -2.1368666378   -1.5293639401
C       -1.2257907397   -3.2092701014   -2.4162675875
C       -1.2566977162   -2.9708086710   -3.7935273745
C       -1.1241103108   -1.6669958625   -4.2835594376
C       -0.9790020588   -0.6031289159   -3.3895991621
C       -0.9876295614   -0.8171120918   -2.0047448120
C       -0.8722360616    0.3140237251   -1.0462554761
C       -2.0151249479    1.0100884709   -0.7363545224
C       -2.1201099458    2.0616531554    0.3021438711
C       -1.2898804232    3.1903496544    0.5718987099
C       -0.2593704112    3.6355896181   -0.3006056859
C        0.4762826988    4.7660511316   -0.0136509645
C        0.2257772229    5.5033553600    1.1727094246
C       -0.8065236037    5.1324831048    2.0077252744
C       -1.6177848947    4.0014325001    1.7104972978
C       -2.7843127516    3.7089707746    2.4722851985
C       -3.6589705384    2.7129084018    2.0805750014
C       -3.3305964261    1.9125595706    0.9677192097
C       -4.1626323853    0.8672994206    0.2698396167
C       -3.4819918856    0.7497021005   -1.1340483007
C       -3.9321542694   -0.5192886297   -1.8545041890
H        2.7113865285    1.3853307866    1.8597675414
H        1.2969830973    1.8643674756   -0.0858359467
H       -1.3087087813   -4.2223582010   -2.0315775369
H       -1.3683021354   -3.8056421390   -4.4803694892
H       -1.1333827324   -1.4813924580   -5.3542597236
H       -0.8810506188    0.4145626553   -3.7587523447
H       -5.2187269180    1.1463932938    0.1950751775
H       -4.1068235632   -0.1049713748    0.7772308336
H       -3.8189533924    1.6183745668   -1.7173058031
H       -3.6279625578   -1.4194143384   -1.3172524343
H       -5.0279762920   -0.5145639880   -1.8983212100
H       -3.5599561554   -0.5867455689   -2.8772425104
H        2.4141067880   -0.7475854187    3.1307827147
H       -0.0830020530    3.0862307359   -1.2199970191
H       -4.5904625960    2.5517668440    2.6182739991
H        1.2481614564    5.1007843418   -0.7021831201
H       -1.0367295218    5.7233573950    2.8915203803
H       -3.0108915493    4.3285328559    3.3370555594
H        0.8272980637    6.3792387102    1.4014262403
H        0.7399336890   -2.4096383870    2.3447260228
48   
Dihedral (-150, -15) Energy -1439.270007960
C        0.1693586109    0.1361612893    0.0161999871
C        1.1943242117    1.0245751603    0.3632132244
C        2.0551215708    0.7633608044    1.4317204683
C        1.9301034549   -0.4222170537    2.1595040208
C        0.9724400602   -1.3641017984    1.7790866097
C        0.1117648894   -1.0951482731    0.7090844794
S       -1.0456783927   -2.3651108070    0.2242758563
C       -0.9951269730   -2.1008903485   -1.5339402154
C       -1.0942879900   -3.1826670652   -2.4145643935
C       -1.1058147291   -2.9542041722   -3.7936911923
C       -0.9952445581   -1.6502027977   -4.2895309307
C       -0.8984612478   -0.5746728716   -3.4024643576
C       -0.9287988356   -0.7813581645   -2.0175187700
C       -0.8724203597    0.3448572879   -1.0476001424
C       -1.9871671891    1.0917140610   -0.7954249811
C       -2.1161214073    2.1245383513    0.2635762134
C       -1.2910402490    3.2399274054    0.5940140344
C       -0.2406622222    3.7145284859   -0.2374111454
C        0.4934246613    4.8293687006    0.1080656475
C        0.2206407289    5.5213212237    1.3165388594
C       -0.8319903630    5.1240320084    2.1131201464
C       -1.6413487117    4.0093657407    1.7550409515
C       -2.8263813600    3.6951370498    2.4780502674
C       -3.6936230481    2.7170417001    2.0295087366
C       -3.3409617685    1.9548787216    0.8973083941
C       -4.1560371555    0.9258698012    0.1564664463
C       -3.4441699975    0.8406036282   -1.2328470326
C       -3.8687585241   -0.4153001746   -1.9903177474
H        2.8229554362    1.4878570596    1.6894275904
H        1.3238476910    1.9371481614   -0.1994970755
H       -1.1546599250   -4.1950091796   -2.0239681048
H       -1.1818358408   -3.7955642404   -4.4774461079
H       -0.9869706985   -1.4727174650   -5.3616158065
H       -0.8236290730    0.4427299629   -3.7777806323
H       -5.2107938119    1.2053791893    0.0650512536
H       -4.1094469008   -0.0572117681    0.6439184129
H       -3.7700853555    1.7202558309   -1.8056695867
H       -3.5608589607   -1.3257614362   -1.4721168504
H       -4.9636274948   -0.4229240450   -2.0527687445
H       -3.4784853507   -0.4529184922   -3.0079221798
H        2.5940934117   -0.6322303910    2.9938240063
H       -0.0530044649    3.2062137266   -1.1779451036
H       -4.6374542702    2.5382598249    2.5394535660
H        1.2799694714    5.1876212445   -0.5514398818
H       -1.0799447831    5.6820643227    3.0133063171
H       -3.0712903839    4.2836100434    3.3593637061
H        0.8204599498    6.3848517721    1.5919563581
H        0.9056495328   -2.3188322236    2.2939003572
48   
Dihedral (-150, -10) Energy -1439.274578600
C       -0.1695913213    0.1435694617    0.1409384707
C       -0.4637190654    0.1196010225    1.5151551836
C        0.5453589288   -0.0278137953    2.4648122471
C        1.8757614033   -0.1847082892    2.0576497511
C        2.1844031545   -0.2274449990    0.6966565551
C        1.1652043130   -0.0734820933   -0.2485976107
S        1.5382368841   -0.1147442124   -1.9825081420
C        0.0698168145   -0.9655490526   -2.5352631051
C        0.2288887182   -1.8588514185   -3.5996894140
C       -0.8680980557   -2.5572342012   -4.1038848191
C       -2.1190461995   -2.3674690080   -3.5141600313
C       -2.2762852885   -1.4729272806   -2.4546056368
C       -1.1981827960   -0.7236470997   -1.9393728344
C       -1.2420371169    0.3211833708   -0.8740116014
C       -2.3396362391    1.1012620631   -0.5747340950
C       -2.3831490935    2.3284097362    0.2472093256
C       -1.3410773624    3.1471334816    0.8179983578
C        0.0332156503    3.0572463692    0.4755876508
C        0.9817021993    3.8550642398    1.0836230324
C        0.6073750057    4.7934422004    2.0741780608
C       -0.7277889485    4.9663703749    2.3725482661
C       -1.7290163162    4.1872353429    1.7302214017
C       -3.1071842745    4.4853251745    1.9325269313
C       -4.0778637249    3.8343158491    1.2021729553
C       -3.7043246693    2.7738582024    0.3523996245
C       -4.6038379958    2.0366197632   -0.6015573294
C       -3.7885210698    0.7797478200   -0.9574809539
C       -4.2763522984   -0.3838603862   -0.0582409148
H        0.2952176573   -0.0214002231    3.5221815585
H       -1.4938312849    0.2408846225    1.8341308683
H        1.2190423916   -2.0179483918   -4.0182256437
H       -0.7401504067   -3.2544476142   -4.9274286301
H       -2.9824513617   -2.9222710305   -3.8719600461
H       -3.2595091483   -1.3868494756   -2.0235424767
H       -4.7826684279    2.6688865358   -1.4810204333
H       -5.5835577630    1.7887643835   -0.1799265805
H       -3.8947122456    0.5200308400   -2.0126635390
H       -4.3666713249   -0.0316647594    0.9751892557
H       -5.2628428869   -0.7356487912   -0.3812119435
H       -3.5887254739   -1.2316570779   -0.0482434451
H        2.6657786824   -0.3008178746    2.7947963777
H        0.3432214971    2.3833674497   -0.3085605143
H       -5.1237153233    4.1202336197    1.2863611880
H        2.0240645825    3.7637842966    0.7898918797
H       -1.0385821339    5.7280252175    3.0842132302
H       -3.3750643256    5.2767864040    2.6286885643
H        1.3641535839    5.4001277555    2.5647284857
H        3.2064326682   -0.3943415000    0.3670742706
48   
Dihedral (-150, -5) Energy -1439.277809550
C       -0.1027280047    0.0356503644   -0.0278654637
C       -0.1965620844    0.0564990419    1.3697217353
C        0.9542843098    0.0735700324    2.1580850026
C        2.2186547654    0.0498002852    1.5573637988
C        2.3311623898   -0.0261186751    0.1667220522
C        1.1736387097   -0.0451221761   -0.6166741987
S        1.2875472395   -0.1343706531   -2.3987099342
C       -0.0874113907   -1.2497681999   -2.6494660063
C        0.0296509404   -2.2903045956   -3.5758065441
C       -0.9806404765   -3.2501051306   -3.6684205574
C       -2.0668392479   -3.2009699383   -2.7869130329
C       -2.1820711350   -2.1504633745   -1.8742751875
C       -1.2404037590   -1.1133890409   -1.8446477687
C       -1.2868216303    0.0650571029   -0.9331560436
C       -2.3190520306    0.9299340586   -0.7570734808
C       -2.3394412947    2.0525020722    0.2239341782
C       -1.3065893685    2.9346630648    0.6689582361
C       -0.0233994484    3.0224344401    0.0634587706
C        0.9319239499    3.8883302365    0.5508264249
C        0.6514495316    4.7183004717    1.6660052175
C       -0.6048691873    4.7043557055    2.2334320593
C       -1.6214333814    3.8417653032    1.7360797256
C       -2.9514259949    3.9069480994    2.2423387708
C       -3.9639382654    3.1557776774    1.6789450191
C       -3.6490513385    2.2433930543    0.6500909135
C       -4.5888982289    1.3976380054   -0.1749641676
C       -3.7117213833    1.0308624775   -1.4057180339
C       -4.3366592439   -0.0393707951   -2.2950614163
H        0.8662116643    0.1124271385    3.2403714983
H       -1.1775845527    0.0927402340    1.8333983694
H        0.9227536818   -2.3696509816   -4.1895891597
H       -0.8907020912   -4.0625099500   -4.3846262414
H       -2.8197870733   -3.9844478965   -2.8042007095
H       -3.0063041864   -2.1329055165   -1.1712075912
H       -5.5022215087    1.9326234007   -0.4559711941
H       -4.8907798632    0.4828548239    0.3545133811
H       -3.6542940825    1.9462720447   -2.0126960918
H       -4.6086309562   -0.9400166682   -1.7404462004
H       -5.2606948125    0.3681860841   -2.7218542878
H       -3.6864905897   -0.3283857783   -3.1226355465
H        3.1160492668    0.0663196680    2.1701244490
H        0.1942998982    2.4157559769   -0.8059959462
H       -4.9905995250    3.2635877448    2.0213380262
H        1.9068697932    3.9383165578    0.0731080830
H       -0.8433609588    5.3719477651    3.0585456821
H       -3.1677889418    4.6016372238    3.0508877238
H        1.4192210991    5.3842975944    2.0514564262
H        3.3078880011   -0.0862513591   -0.3057386788
48   
Dihedral (-150, 0) Energy -1439.279837030
C       -0.0523104123    0.0381173382   -0.0362269637
C       -0.0679207675    0.0900380378    1.3636538567
C        1.1233895096    0.1571042951    2.0864162817
C        2.3517115396    0.1527531116    1.4155422913
C        2.3886042240    0.0456166430    0.0229475123
C        1.1905322083   -0.0254280502   -0.6950450368
S        1.2195988461   -0.1565019371   -2.4777830706
C       -0.1454974727   -1.2981248799   -2.6383669921
C       -0.0587347752   -2.3646998028   -3.5396373329
C       -1.0609482897   -3.3376234593   -3.5608487721
C       -2.1143536896   -3.2712384263   -2.6419274485
C       -2.1990356883   -2.1972984152   -1.7548494405
C       -1.2619820030   -1.1550831089   -1.7889382035
C       -1.2888522539    0.0149218514   -0.8663683707
C       -2.2726503162    0.9441576115   -0.7652784385
C       -2.3228992427    2.0673183909    0.2194571808
C       -1.3079628942    2.9324890362    0.7341821442
C        0.0056239736    3.0214143451    0.1992381128
C        0.9428888493    3.8674573827    0.7513529238
C        0.6138170095    4.6771371306    1.8678010443
C       -0.6698602083    4.6628069509    2.3699136056
C       -1.6675954754    3.8208274568    1.8036923741
C       -3.0196128365    3.8888644118    2.2458395068
C       -4.0074038576    3.1554619420    1.6201658221
C       -3.6498627850    2.2596919581    0.5906170857
C       -4.5618873602    1.4269948930   -0.2774538409
C       -3.6368770105    1.0557680916   -1.4685173133
C       -4.2234542430   -0.0095919982   -2.3890697689
H        1.0944273263    0.2226918196    3.1705012654
H       -1.0230713439    0.1143940036    1.8794975706
H        0.8074905402   -2.4529901869   -4.1896322771
H       -0.9904033443   -4.1694283656   -4.2566711763
H       -2.8620854472   -4.0591533936   -2.6098219977
H       -2.9962727493   -2.1614236661   -1.0204928296
H       -5.4569045438    1.9730706260   -0.5941372903
H       -4.8951978995    0.5141432208    0.2363872092
H       -3.5456608016    1.9716399519   -2.0708727634
H       -4.5160904977   -0.9146257140   -1.8533277524
H       -5.1282807427    0.4001040394   -2.8534707107
H       -3.5374352438   -0.2932513604   -3.1893552523
H        3.2814546966    0.2092518924    1.9753673649
H        0.2626719208    2.4299721350   -0.6697289302
H       -5.0487629008    3.2624731159    1.9151177702
H        1.9414100935    3.9153327019    0.3251184681
H       -0.9446958993    5.3150067480    3.1960037073
H       -3.2698667614    4.5698546160    3.0562332183
H        1.3664704756    5.3276855690    2.3058414674
H        3.3389741535   -0.0003728395   -0.5020137937
48   
Dihedral (-150, 5) Energy -1439.279038390
C       -0.0391280408    0.0250913373   -0.0501446999
C        0.0292750291    0.0914566552    1.3474812135
C        1.2595672854    0.1884369774    1.9983428681
C        2.4444979299    0.2008386835    1.2542999218
C        2.3985770203    0.0800459895   -0.1371296323
C        1.1621031108   -0.0232848604   -0.7837435569
S        1.0976371480   -0.1791754522   -2.5633915632
C       -0.2568623879   -1.3404105938   -2.6347404831
C       -0.2079450485   -2.4247050575   -3.5190214442
C       -1.2026064718   -3.4053890886   -3.4720745711
C       -2.2159853938   -3.3248459395   -2.5106610919
C       -2.2622906472   -2.2349000533   -1.6413770450
C       -1.3286666118   -1.1923108816   -1.7341847988
C       -1.3263190860   -0.0324599680   -0.7972962540
C       -2.2544814085    0.9578974831   -0.7717089456
C       -2.3296213337    2.0874883964    0.2103245858
C       -1.3330060546    2.9342873868    0.7896106136
C        0.0092195189    3.0130719629    0.3306399337
C        0.9244211332    3.8458330857    0.9373285166
C        0.5455997778    4.6509404718    2.0406938951
C       -0.7629504897    4.6447552268    2.4739838819
C       -1.7376907262    3.8183821460    1.8479045231
C       -3.1090733149    3.9003947333    2.2209673193
C       -4.0705816252    3.1825338901    1.5402477424
C       -3.6711545173    2.2913602853    0.5223301974
C       -4.5565686384    1.4693264006   -0.3816090007
C       -3.5880151334    1.0814510746   -1.5286790645
C       -4.1433935365    0.0175625380   -2.4698165717
H        1.2938565385    0.2667436726    3.0813811414
H       -0.8944457450    0.1057867060    1.9183779670
H        0.6253369395   -2.5199654259   -4.2098944058
H       -1.1579345272   -4.2501809976   -4.1543367329
H       -2.9597974629   -4.1132235436   -2.4322296225
H       -3.0285842110   -2.1828705968   -0.8744114165
H       -5.4308233154    2.0259762009   -0.7357741419
H       -4.9219250280    0.5627251143    0.1215297996
H       -3.4580982835    1.9928091300   -2.1310293565
H       -4.4519015269   -0.8893354182   -1.9470352658
H       -5.0315931488    0.4287631834   -2.9642559895
H       -3.4299350002   -0.2643330222   -3.2467615216
H        3.4054926488    0.2810020341    1.7554532620
H        0.3088789971    2.4255112056   -0.5269150199
H       -5.1245569712    3.2962156544    1.7835133914
H        1.9445768531    3.8839774005    0.5648508434
H       -1.0754178393    5.2924228017    3.2902112602
H       -3.3923950717    4.5782935091    3.0230272737
H        1.2801600580    5.2907935497    2.5230310810
H        3.3166091644    0.0462107292   -0.7176826883
48   
Dihedral (-150, 10) Energy -1439.275755140
C        0.0008999390    0.0226098293   -0.0208361312
C        0.1530096745    0.0999130901    1.3693849804
C        1.4173360141    0.2320653108    1.9447013652
C        2.5538846639    0.2678806056    1.1299310327
C        2.4262547470    0.1338460277   -0.2553249674
C        1.1562182256   -0.0066303862   -0.8267139753
S        1.0006485224   -0.1890787621   -2.5984368740
C       -0.3383734953   -1.3692293747   -2.5936690945
C       -0.3382502847   -2.4510237702   -3.4834428297
C       -1.3308667640   -3.4314658380   -3.3871225297
C       -2.2955166620   -3.3541671113   -2.3771150393
C       -2.2927997002   -2.2673460397   -1.5033714757
C       -1.3603294666   -1.2281902903   -1.6390122431
C       -1.3253843356   -0.0815427825   -0.6879683694
C       -2.2070308541    0.9553133706   -0.7457299119
C       -2.3150395304    2.1002140443    0.2230930345