48   
Dihedral (-150, -45) Energy -1439.218188850
C        0.1653273488    0.2028705177    0.0283376556
C        1.0717305883    1.0760853877    0.6446330491
C        1.6704535000    0.7671577882    1.8684117670
C        1.4375256816   -0.4730385890    2.4664727195
C        0.6263088481   -1.4045592894    1.8155811614
C        0.0017524501   -1.0752191621    0.6062791784
S       -1.0587577553   -2.3237561895   -0.1097694386
C       -1.0150162056   -1.9076689649   -1.8414848251
C       -1.2743681898   -2.9087818684   -2.7853375732
C       -1.4223713029   -2.5772063787   -4.1366383930
C       -1.2980193890   -1.2468952109   -4.5477986936
C       -1.0101279312   -0.2577941606   -3.6037899301
C       -0.9026781014   -0.5632268576   -2.2405707996
C       -0.5626117281    0.5020506831   -1.2651635725
C       -1.8543432999    0.8903713445   -0.7349306195
C       -2.0046468770    1.8976672116    0.3394743035
C       -1.3033292960    3.1283484201    0.5404611301
C       -0.3951539755    3.6848538477   -0.4021166030
C        0.2045730444    4.9056533853   -0.1714108148
C       -0.0635700313    5.6265238839    1.0205529554
C       -0.9773387259    5.1363615993    1.9292153731
C       -1.6486162002    3.9033499258    1.6977333095
C       -2.6987086130    3.4656037251    2.5554089989
C       -3.4636315572    2.3586290523    2.2410047870
C       -3.1282004795    1.6002232311    1.1014250055
C       -3.8953574584    0.4880697561    0.4387375748
C       -3.3286331948    0.5031031826   -1.0201141661
C       -3.8201869252   -0.7111563536   -1.8071619671
H        2.3326033690    1.4891052351    2.3389217690
H        1.2965202351    2.0232185977    0.1726669466
H       -1.3718386716   -3.9426407441   -2.4637365413
H       -1.6297377478   -3.3600190004   -4.8613872164
H       -1.4045683293   -0.9850808465   -5.5970527667
H       -0.8777117472    0.7755956522   -3.9139623085
H       -4.9775049330    0.6523897801    0.4597869856
H       -3.6927912166   -0.4910759726    0.8904347556
H       -3.7597038782    1.3940792033   -1.5000328790
H       -3.5292890290   -1.6513991039   -1.3396377761
H       -4.9164152844   -0.6732104104   -1.8069061342
H       -3.4921820640   -0.7174051718   -2.8462765660
H        1.9049277730   -0.7296574019    3.4133991655
H       -0.1830273501    3.1302800581   -1.3102396954
H       -4.3187594769    2.0838569203    2.8539337977
H        0.8866705941    5.3213457339   -0.9088110946
H       -1.2203677072    5.7043643212    2.8244717564
H       -2.9321054197    4.0598493737    3.4360665435
H        0.4322335129    6.5767921587    1.2007003275
H        0.4811665473   -2.3942032943    2.2415069350
48   
Dihedral (-150, -30) Energy -1439.252226940
C        0.1029299870   -0.0309729286   -0.0476752275
C        1.0856774977    0.8220030274    0.4720419006
C        1.7883063545    0.5083606020    1.6378552265
C        1.5608404192   -0.7077746622    2.2853408721
C        0.6540308053   -1.6156613137    1.7363837571
C       -0.0608322383   -1.2869177730    0.5778748885
S       -1.2014296260   -2.5094377562   -0.0431571473
C       -1.1225946078   -2.1648416812   -1.7841104530
C       -1.3360274003   -3.1944303426   -2.7083698162
C       -1.3950279756   -2.9057640981   -4.0755809316
C       -1.2236026280   -1.5913002221   -4.5212649822
C       -0.9994305075   -0.5721934081   -3.5927479305
C       -0.9790123900   -0.8353393584   -2.2157846617
C       -0.7627970375    0.2706348662   -1.2468303245
C       -1.9649733160    0.8561155617   -0.8428400990
C       -2.0659751352    1.8955901526    0.2043020664
C       -1.2615068443    3.0541380646    0.4282444065
C       -0.2649540567    3.5097350090   -0.4791329495
C        0.4396081858    4.6696379519   -0.2337093596
C        0.1914691092    5.4271830782    0.9403560345
C       -0.8064780597    5.0414698370    1.8097259511
C       -1.5858645563    3.8774276586    1.5584967663
C       -2.7192639162    3.5609060278    2.3606061813
C       -3.5726670608    2.5295939639    2.0151240119
C       -3.2523757374    1.7211315370    0.9060850633
C       -4.0788293621    0.6589679779    0.2280614208
C       -3.4406719343    0.5779329050   -1.1996481768
C       -3.9218547897   -0.6657582430   -1.9444745270
H        2.5185499168    1.2116631660    2.0291236541
H        1.2965942870    1.7560137073   -0.0299782702
H       -1.4582656658   -4.2163544587   -2.3589155799
H       -1.5637834072   -3.7097835017   -4.7870966739
H       -1.2575238537   -1.3640897607   -5.5833725113
H       -0.8576062738    0.4523645718   -3.9270703715
H       -5.1435692291    0.9108177555    0.1897470066
H       -3.9806769399   -0.3179102848    0.7191411703
H       -3.7998230185    1.4616803319   -1.7462999219
H       -3.5542622303   -0.7235617476   -2.9692119785
H       -3.6459395443   -1.5835098442   -1.4234986240
H       -5.0171678370   -0.6274901562   -1.9858293025
H        2.1042961547   -0.9651192611    3.1905918380
H       -0.0793902077    2.9349479561   -1.3808432498
H       -4.4828649528    2.3510607621    2.5828059342
H        1.1872620267    5.0106721940   -0.9454514292
H       -1.0335177374    5.6438240760    2.6865541684
H       -2.9406094386    4.1900204161    3.2198637019
H        0.7690564596    6.3271910693    1.1344767310
H        0.5077203464   -2.5894603882    2.1964882017
48   
Dihedral (-150, -15) Energy -1439.270005650
C        0.0039059568    0.0819102844    0.1421988848
C        1.0373352002    0.9581000894    0.4946499030
C        1.8791233999    0.6976625969    1.5785286132
C        1.7256053451   -0.4772752884    2.3179927086
C        0.7584625032   -1.4080080594    1.9336426913
C       -0.0830859020   -1.1398908178    0.8484384914
S       -1.2535643172   -2.3976407640    0.3604955890
C       -1.1642759205   -2.1572507183   -1.4002332063
C       -1.2577260285   -3.2484155602   -2.2697949690
C       -1.2356140384   -3.0359836181   -3.6516842114
C       -1.0977575448   -1.7397566616   -4.1603568535
C       -1.0068655814   -0.6549278506   -3.2840769966
C       -1.0705686795   -0.8446935722   -1.8980307298
C       -1.0182581591    0.2919049325   -0.9401989411
C       -2.1277733499    1.0541285756   -0.7130190838
C       -2.2614795778    2.0974144038    0.3347246124
C       -1.4276297993    3.2059951642    0.6641588548
C       -0.3590074745    3.6560672371   -0.1579400666
C        0.3831673527    4.7657183658    0.1868716747
C        0.1008476399    5.4754374885    1.3828905984
C       -0.9681807576    5.1018295975    2.1690164818
C       -1.7854294419    3.9929249286    1.8111502443
C       -2.9844422687    3.7004326744    2.5203413322
C       -3.8564114924    2.7268045807    2.0705542981
C       -3.4968686993    1.9477807181    0.9520817213
C       -4.3116785968    0.9196080489    0.2094992820
C       -3.5812330910    0.8167810872   -1.1693683779
C       -4.0087057514   -0.4381239732   -1.9262984957
H        2.6541390948    1.4135777293    1.8387676789
H        1.1881700203    1.8625232843   -0.0760227759
H       -1.3391129085   -4.2552465916   -1.8688896249
H       -1.3068152913   -3.8844679470   -4.3271001997
H       -1.0634623808   -1.5752955907   -5.2339971431
H       -0.9107024581    0.3568199114   -3.6696871446
H       -5.3625251652    1.2078328167    0.1015667623
H       -4.2801642121   -0.0594578653    0.7060856390
H       -3.8893281646    1.6968907368   -1.7513235706
H       -3.5921247661   -0.4927567491   -2.9326076166
H       -3.7312658716   -1.3489242237   -1.3915755586
H       -5.1014395519   -0.4264457176   -2.0182311109
H        2.3743154177   -0.6880350189    3.1640845168
H       -0.1637218120    3.1342463680   -1.0895372903
H       -4.8092353326    2.5645728775    2.5691522557
H        1.1843111467    5.1064376636   -0.4642805847
H       -1.2223351111    5.6736164405    3.0588042757
H       -3.2352240148    4.3017164511    3.3913190708
H        0.7075344984    6.3346223677    1.6568123101
H        0.6694117516   -2.3553210161    2.4585900849
48   
Dihedral (-150, 0) Energy -1439.279837120
C       -0.0521519841    0.0383388578   -0.0360524930
C       -0.0679235514    0.0902644730    1.3638096283
C        1.1233336799    0.1574317570    2.0866507553
C        2.3517243294    0.1531453191    1.4158850193
C        2.3887610700    0.0459698408    0.0232925287
C        1.1907410722   -0.0251551288   -0.6947823211
S        1.2199750718   -0.1562808091   -2.4775097180
C       -0.1450455802   -1.2979697056   -2.6382127465
C       -0.0582049068   -2.3645741726   -3.5394388525
C       -1.0603784102   -3.3375549111   -3.5607187501
C       -2.1138686893   -3.2712125131   -2.6418829416
C       -2.1985622475   -2.1972209804   -1.7548608811
C       -1.2615763037   -1.1549606100   -1.7888675043
C       -1.2885847567    0.0150290430   -0.8663020586
C       -2.2724969700    0.9441132106   -0.7653973883
C       -2.3228985298    2.0671501127    0.2193884422
C       -1.3081188939    2.9324578940    0.7341644498
C        0.0054560103    3.0217991952    0.1992483626
C        0.9426124446    3.8679396141    0.7514046721
C        0.6133611948    4.6773989570    1.8679677350
C       -0.6703298193    4.6627141047    2.3700544604
C       -1.6679184447    3.8206124022    1.8037675563
C       -3.0199449220    3.8883835696    2.2459168370
C       -4.0076160590    3.1548819976    1.6201645477
C       -3.6498918468    2.2592641874    0.5905584129
C       -4.5617620811    1.4264749991   -0.2776330221
C       -3.6366579745    1.0555775570   -1.4687304947
C       -4.2229530687   -0.0097524244   -2.3894933151
H        1.0942901395    0.2230364372    3.1707330722
H       -1.0231294514    0.1145746942    1.8795529381
H        0.8080644010   -2.4528513373   -4.1893776498
H       -0.9897470635   -4.1693645059   -4.2565291189
H       -2.8615948264   -4.0591379214   -2.6098077068
H       -2.9958498310   -2.1613289323   -1.0205586173
H       -5.4569140319    1.9723596514   -0.5942476623
H       -4.8948334284    0.5134818208    0.2361013158
H       -3.5455426915    1.9715528002   -2.0709317184
H       -4.5154259331   -0.9149444571   -1.8539345072
H       -5.1278285749    0.3998327738   -2.8538907372
H       -3.5368092350   -0.2931305052   -3.1897735154
H        3.2814123279    0.2097175569    1.9757931755
H        0.2626097313    2.4305674023   -0.6698184165
H       -5.0489974086    3.2616768956    1.9151117407
H        1.9411153331    3.9160729385    0.3251481495
H       -0.9452829296    5.3147678213    3.1962181724
H       -3.2703163894    4.5692613768    3.0563671579
H        1.3658737827    5.3280584677    2.3060914046
H        3.3391839112    0.0000161054   -0.5015809588
48   
Dihedral (-150, 15) Energy -1439.270311020
C        0.0370193212    0.0216863245    0.0163513830
C        0.2708822947    0.0986932517    1.3949089607
C        1.5636555371    0.2658005065    1.8931892479
C        2.6463801750    0.3352574584    1.0106071589
C        2.4379975730    0.1985253766   -0.3647870391
C        1.1406398747    0.0223833774   -0.8605408071
S        0.8930260707   -0.1710547719   -2.6209011766
C       -0.4187024949   -1.3782663861   -2.5490261170
C       -0.4666965790   -2.4452181179   -3.4558725122
C       -1.4509142537   -3.4308196862   -3.3211425693
C       -2.3591822460   -3.3734449900   -2.2594842649
C       -2.3094655514   -2.3011706460   -1.3694192745
C       -1.3857029460   -1.2594634120   -1.5380492299
C       -1.3218301766   -0.1259715913   -0.5724320855
C       -2.1587136332    0.9479897201   -0.7170142658
C       -2.2962944757    2.1166448227    0.2271534980
C       -1.3564324163    2.9442948597    0.9252757214
C        0.0308784410    3.0089247020    0.6308688277
C        0.8817661423    3.8332302652    1.3361585858
C        0.3927394215    4.6433523855    2.3895492483
C       -0.9564422042    4.6495487869    2.6709545149
C       -1.8626555938    3.8358145154    1.9357560140
C       -3.2637364544    3.9442623434    2.1565403053
C       -4.1536433122    3.2431066783    1.3727097036
C       -3.6601691289    2.3459777191    0.4029041012
C       -4.4777713161    1.5272385507   -0.5609025025
C       -3.4193555904    1.0751538441   -1.5921630503
C       -3.9266793359    0.0008925992   -2.5496785129
H        1.7238379296    0.3560106631    2.9638279039
H       -0.5776489712    0.0696638771    2.0723381905
H        0.2811460172   -2.5210926375   -4.2407160708
H       -1.4790064415   -4.2587865759   -4.0246509613
H       -3.0967086009   -4.1602045144   -2.1256062427
H       -3.0044927890   -2.2495061499   -0.5357857357
H       -5.2960323180    2.0989173807   -1.0119912195
H       -4.9184530270    0.6476693424   -0.0702063307
H       -3.2001788514    1.9605204877   -2.2078879116
H       -4.2956537818   -0.8857154999   -2.0322191066
H       -4.7643246487    0.4247308783   -3.1169126827
H       -3.1666332982   -0.3163198783   -3.2663906291
H        3.6558911285    0.4699769978    1.3899569139
H        0.4240780932    2.4239519623   -0.1894175197
H       -5.2265245643    3.3690852947    1.4992865055
H        1.9371848911    3.8570239766    1.0788012206
H       -1.3542319067    5.2995678496    3.4471620322
H       -3.6209220708    4.6267370406    2.9244433905
H        1.0747888543    5.2760319593    2.9518235380
H        3.2805490857    0.2052990413   -1.0510735261
48   
Dihedral (-150, 30) Energy -1439.243284010
C        0.0917296023   -0.0090227654    0.0808879570
C        0.5251631470    0.0530652451    1.4108197134
C        1.8601553548    0.3171786880    1.7218824387
C        2.7928396129    0.4860209706    0.6940624289
C        2.3950031039    0.3498841898   -0.6393230515
C        1.0550088617    0.0826820686   -0.9459260861
S        0.5869034490   -0.1165874703   -2.6599640983
C       -0.6340012165   -1.4014423851   -2.4677963709
C       -0.8057445405   -2.3940340143   -3.4417654766
C       -1.7801031723   -3.3858304939   -3.2663944096
C       -2.5497053167   -3.4151412890   -2.1008881869
C       -2.3724441658   -2.4197225542   -1.1396002558
C       -1.4649138012   -1.3704541563   -1.3378179630
C       -1.3186141745   -0.3020653692   -0.3079372179
C       -2.0331403393    0.8506055612   -0.6803989583
C       -2.2058758917    2.0874891309    0.1907709818
C       -1.3320800370    2.8929238329    1.0037132617
C        0.0776109189    2.9496847479    0.8658810049
C        0.8601570889    3.7531794825    1.6694335615
C        0.2747069431    4.5533904078    2.6777380849
C       -1.0971355721    4.5748319293    2.8077979320
C       -1.9279506947    3.7869012204    1.9646719687
C       -3.3406375571    3.9346678170    2.0300678554
C       -4.1500224496    3.2715802933    1.1381000417
C       -3.5725823924    2.3678195536    0.2221044453
C       -4.3275821505    1.5647034911   -0.7945433754
C       -3.2051619017    0.9897433111   -1.6789744274
C       -3.7340679954   -0.0904136067   -2.6218456893
H        2.1683664850    0.4009164657    2.7602148660
H       -0.2083007381   -0.0630079351    2.2034894333
H       -0.1732785270   -2.3995975516   -4.3256440700
H       -1.9074262505   -4.1489929050   -4.0296869730
H       -3.2817180816   -4.2031047853   -1.9456620704
H       -2.9695805782   -2.4221836696   -0.2313015005
H       -5.0464137405    2.1689028753   -1.3590173912
H       -4.8845877850    0.7424056058   -0.3238632894
H       -2.8610986124    1.8172071209   -2.3179973475
H       -4.1996846365   -0.9201243212   -2.0890716837
H       -4.5070273422    0.3754989618   -3.2457705148
H       -2.9740940486   -0.4946981521   -3.2900641064
H        3.8343316006    0.6939125285    0.9249480597
H        0.5517046140    2.3865102174    0.0746897016
H       -5.2273164799    3.4213505218    1.1410584197
H        1.9362725783    3.7673255694    1.5197722006
H       -1.5710065448    5.2216091516    3.5428126543
H       -3.7631839993    4.6160810801    2.7649146437
H        0.8996092307    5.1687077117    3.3199562458
H        3.1256722808    0.4278125263   -1.4399024586
48   
Dihedral (-150, 45) Energy -1439.201747580
C        0.0363815302    0.0116313744    0.1679460969
C        0.5154944451    0.1530666387    1.4769722439
C        1.8425174074    0.5056669169    1.7292466063
C        2.7334516898    0.6643424647    0.6637670558
C        2.2990134876    0.4399796634   -0.6466048231
C        0.9636052383    0.0989159285   -0.8931088865
S        0.4582077671   -0.1843452798   -2.5866641259
C       -0.7658323036   -1.4632638635   -2.3730508209
C       -0.9939908122   -2.4112934011   -3.3791040414
C       -2.0319316387   -3.3429028974   -3.2418238745
C       -2.8123198723   -3.3592450582   -2.0836619437
C       -2.5672807723   -2.4194337576   -1.0811587473
C       -1.5913298278   -1.4253857417   -1.2368708395
C       -1.3528756920   -0.4551380265   -0.1349832830
C       -1.9592045769    0.7685719102   -0.6695259475
C       -2.1674526663    2.0143052264    0.2008072304
C       -1.3388434312    2.8616612196    1.0160033240
C        0.0621216734    3.0081291730    0.8601991030
C        0.8004329484    3.8622382917    1.6523345404
C        0.1771503646    4.6207944833    2.6707664343
C       -1.1909655088    4.5534329949    2.8202095975
C       -1.9802163722    3.7180819273    1.9821439612
C       -3.3981117350    3.7886389870    2.0502808217
C       -4.1701469663    3.1001715679    1.1435955486
C       -3.5451319972    2.2406189242    0.2176036545
C       -4.2461121023    1.4460888383   -0.8438468758
C       -3.0752449481    0.9727006607   -1.7300673897
C       -3.5457168075    0.0091937070   -2.8184543611
H        2.1784712151    0.6552270685    2.7514552761
H       -0.1800653951    0.0190362421    2.3003600947
H       -0.3668154389   -2.4199105021   -4.2668744588
H       -2.2050054461   -4.0678925916   -4.0327292397
H       -3.5984112637   -4.0994384551   -1.9609885229
H       -3.1564316790   -2.4243325824   -0.1676389700
H       -4.9821105839    2.0409319375   -1.3961665474
H       -4.7652972712    0.5716901630   -0.4278562954
H       -2.7144899057    1.8669409502   -2.2584510053
H       -4.0431277713   -0.8761603738   -2.4255711187
H       -4.2769550711    0.5545003794   -3.4280986946
H       -2.7451608174   -0.3108303908   -3.4833665210
H        3.7703770283    0.9327875244    0.8478845387
H        0.5611560185    2.4702337362    0.0656233389
H       -5.2532462324    3.1998455102    1.1393501792
H        1.8713365517    3.9468949969    1.4889515959
H       -1.6960191356    5.1679770812    3.5620605625
H       -3.8565205289    4.4392256971    2.7914561617
H        0.7695121152    5.2744220079    3.3059013913
H        2.9997224707    0.5092936044   -1.4742892537
48   
Dihedral (-135, -45) Energy -1439.217328080
C        0.1997479720   -0.0746653493    0.2250396433
C        0.6096502639    0.7565157200    1.2857647156
C        1.1703368051    0.2479445002    2.4567685725
C        1.3968013941   -1.1224294862    2.5995318561
C        1.0744377232   -1.9630149032    1.5361840641
C        0.5025233584   -1.4528147967    0.3621447651
S        0.1864819476   -2.7119060940   -0.8699841687
C       -0.5182899094   -1.8433486155   -2.2382154965
C       -0.8616684556   -2.5973936963   -3.3674893422
C       -1.5132094363   -1.9923599172   -4.4449051920
C       -1.8096061972   -0.6245790040   -4.4047182954
C       -1.4427741541    0.1236064694   -3.2868861296
C       -0.8364548977   -0.4722298205   -2.1660298692
C       -0.4635576824    0.4010099235   -1.0401588732
C       -1.7721904270    0.8236905495   -0.5193655957
C       -1.9805474225    1.9958163614    0.3273760411
C       -1.2345467516    3.2255520912    0.3748653380
C       -0.0990438839    3.4988682952   -0.4339571558
C        0.5584046433    4.7099805320   -0.3518206479
C        0.1200187017    5.7090959566    0.5526321977
C       -0.9960976883    5.4867424204    1.3305999905
C       -1.7109323860    4.2593540007    1.2496629314
C       -2.9014419300    4.0601163929    2.0045642185
C       -3.6503921724    2.9056867751    1.8724091572
C       -3.1924049520    1.8922453355    1.0124135654
C       -3.8759452941    0.6124499730    0.6326847803
C       -3.1739073576    0.1989114125   -0.6994589225
C       -3.3238200254   -1.3081690230   -0.9349291014
H        1.4487191636    0.9366183685    3.2501542847
H        0.4957760170    1.8257517062    1.2016815868
H       -0.6373092075   -3.6610892036   -3.3962167336
H       -1.7806953383   -2.5880080629   -5.3136410640
H       -2.2974517287   -0.1428123718   -5.2475578657
H       -1.6257039872    1.1948038256   -3.2620656085
H       -4.9587717744    0.7208827915    0.5149519490
H       -3.7025622680   -0.1656940528    1.3873310303
H       -3.6930082009    0.7319246547   -1.5066759122
H       -2.6478300590   -1.8866029223   -0.2988655333
H       -4.3490236428   -1.5940479211   -0.6726933105
H       -3.1617183392   -1.6000936458   -1.9714942915
H        1.8365739358   -1.5292356702    3.5058251802
H        0.2515971909    2.7307629109   -1.1155747070
H       -4.5837644435    2.7852191672    2.4170240184
H        1.4208319905    4.8989809869   -0.9857927076
H       -1.3548194496    6.2562141404    2.0104682006
H       -3.2331129476    4.8542319105    2.6697392510
H        0.6563215884    6.6519553017    0.6196866607
H        1.2731781687   -3.0301607208    1.6095611584
48   
Dihedral (-135, -30) Energy -1439.249835650
C        0.0846841170   -0.2643699052    0.1565811782
C        0.6915428093    0.6269019723    1.0620714494
C        1.3639488237    0.1940648774    2.2045106088
C        1.5002926671   -1.1708120540    2.4634366249
C        0.9648170510   -2.0820974001    1.5562801080
C        0.2692972466   -1.6444891290    0.4193263474
S       -0.4264581847   -2.9601515084   -0.5553444085
C       -0.7869428660   -2.1694164143   -2.0879379081
C       -1.0375751167   -2.9779130551   -3.2049886159
C       -1.4523824130   -2.4058643345   -4.4088463751
C       -1.5958277043   -1.0167254000   -4.5073069769
C       -1.3280882317   -0.2201291455   -3.3952618378
C       -0.9594707196   -0.7755831332   -2.1547780506
C       -0.7188877407    0.1638670692   -1.0379859572
C       -1.9406542137    0.7646150683   -0.6484371163
C       -2.0749757638    1.9382889748    0.2227681083
C       -1.2456385478    3.1050723278    0.3060921453
C       -0.1121552867    3.3319843179   -0.5230526380
C        0.6260237378    4.4924155011   -0.4151313983
C        0.2744706587    5.4846586624    0.5356083041
C       -0.8434647056    5.3142993852    1.3234960959
C       -1.6478477826    4.1454330692    1.2103018416
C       -2.8637861127    4.0201709747    1.9392540811
C       -3.7103435320    2.9455795071    1.7368030344
C       -3.3183011998    1.9252853883    0.8511135289
C       -4.1102485024    0.7449281435    0.3638238156
C       -3.3923881085    0.3438782811   -0.9678409741
C       -3.7242516120   -1.1072386880   -1.3256465186
H        1.7961005195    0.9297349330    2.8776926954
H        0.6469136667    1.6876442459    0.8742181885
H       -0.9183631445   -4.0556519433   -3.1257467290
H       -1.6500626400   -3.0427339102   -5.2669613115
H       -1.8997553906   -0.5603999331   -5.4453455195
H       -1.4158684582    0.8608975949   -3.4659445659
H       -5.1697183172    0.9732811397    0.2104568898
H       -4.0514064889   -0.0953654694    1.0682531746
H       -3.7886896174    1.0039474076   -1.7517268033
H       -3.4787525787   -1.3676967229   -2.3545636792
H       -3.2160296640   -1.8083785394   -0.6570506407
H       -4.8037361417   -1.2525220497   -1.1999359634
H        2.0317175624   -1.5247753707    3.3425723434
H        0.1667885787    2.5728452493   -1.2468096637
H       -4.6702445742    2.8942624088    2.2451789678
H        1.4838723516    4.6487236144   -1.0640548548
H       -1.1400675997    6.0858163846    2.0305281131
H       -3.1428597356    4.8155912391    2.6265902447
H        0.8757121024    6.3856347205    0.6245023197
H        1.0849972571   -3.1497978836    1.7239951401
48   
Dihedral (-135, -15) Energy -1439.270118900
C       -0.0272426562   -0.1205798360    0.3248959349
C        0.7745359766    0.8150955190    0.9987408503
C        1.5700865351    0.4618700511    2.0900752684
C        1.6120010233   -0.8622667924    2.5293235361
C        0.8681674956   -1.8257091543    1.8487807360
C        0.0635312353   -1.4664490515    0.7598619964
S       -0.8778693384   -2.7853446620    0.0197476783
C       -0.9679149950   -2.1937860385   -1.6448878945
C       -1.0563380564   -3.1060837022   -2.7027811483
C       -1.2092930453   -2.6432568056   -4.0118166058
C       -1.2534940827   -1.2673022569   -4.2660501658
C       -1.1624783177   -0.3651850729   -3.2049728119
C       -1.0497795187   -0.8104622352   -1.8773427276
C       -0.9951271681    0.1854576420   -0.7799298946
C       -2.1247533984    0.9335609211   -0.5433495380
C       -2.2572558132    2.0713884714    0.3887229552
C       -1.4235937702    3.2187753770    0.5600239285
C       -0.3156191638    3.5205115063   -0.2801748394
C        0.4262058321    4.6681352468   -0.0945207632
C        0.1035820362    5.5711535475    0.9517821918
C       -0.9971516944    5.3355283160    1.7471776069
C       -1.8115177668    4.1845905629    1.5496516985
C       -3.0321307141    4.0150058681    2.2610141445
C       -3.8974482180    2.9815374074    1.9519224860
C       -3.5126441333    2.0320638597    0.9857427767
C       -4.3224784983    0.9204140011    0.3727889178
C       -3.5758312214    0.6258484072   -0.9720273034
C       -3.9641688049   -0.7537701858   -1.5032147155
H        2.1606207166    1.2263959971    2.5879523701
H        0.7828012516    1.8436182191    0.6751038845
H       -1.0029542911   -4.1726690738   -2.5006605615
H       -1.2778886546   -3.3554057591   -4.8299210808
H       -1.3561376457   -0.9016561972   -5.2841354562
H       -1.1985040100    0.7051132657   -3.3907452562
H       -5.3701633555    1.1948104195    0.2127724177
H       -4.3060239165    0.0160331030    0.9958460297
H       -3.9017982126    1.3924921064   -1.6888416385
H       -3.6133284831   -0.9405965375   -2.5181701908
H       -3.5853781312   -1.5482694994   -0.8540646154
H       -5.0584345127   -0.8244866767   -1.5128677106
H        2.2311212049   -1.1503709233    3.3746815587
H       -0.0725585809    2.8379695292   -1.0890126286
H       -4.8664483989    2.9075990784    2.4400170347
H        1.2613054181    4.8857523799   -0.7554492460
H       -1.2771014799    6.0467013363    2.5211732677
H       -3.3045554794    4.7524109676    3.0126940660
H        0.7086145306    6.4612450309    1.1030252290
H        0.9161898165   -2.8682460821    2.1524470669
48   
Dihedral (-135, 0) Energy -1439.278401660
C       -0.1675234293   -0.0434048410    0.1249407104
C       -0.3148480068   -0.0433829992    1.5187048397
C        0.8031187443    0.0061692511    2.3513174856
C        2.0897801536    0.0342464527    1.7994517060
C        2.2574312490   -0.0097512008    0.4137286132
C        1.1318394450   -0.0550348569   -0.4143329290
S        1.3221042625   -0.0403992606   -2.1872299736
C       -0.0172095920   -1.1520662984   -2.5834696924
C        0.1596605982   -2.0651981462   -3.6279374614
C       -0.8190870560   -3.0257114804   -3.8844052307
C       -1.9346805450   -3.1129455701   -3.0434534258
C       -2.1106095352   -2.1889616758   -2.0108464731
C       -1.2024962803   -1.1404359859   -1.8118823615
C       -1.3316135697   -0.0471307207   -0.8046949945
C       -2.3374816607    0.8599071267   -0.6839183393
C       -2.3195665468    2.0154720784    0.2566094176
C       -1.2636243255    2.9091717774    0.6121756114
C       -0.0113564113    2.9574820728   -0.0588740723
C        0.9664560122    3.8455079280    0.3357399584
C        0.7390347389    4.7352035497    1.4166006852
C       -0.4899365722    4.7589417333    2.0412330322
C       -1.5307684637    3.8765218300    1.6382523668
C       -2.8408725055    3.9819219732    2.1883975594
C       -3.8815130308    3.2164781751    1.6987442283
C       -3.6121479130    2.2479112148    0.7088892929
C       -4.5820375636    1.3809219465   -0.0561353573
C       -3.7449679738    0.9547679815   -1.3002519187
C       -4.4103263394   -0.1616907069   -2.0971432226
H        0.6726284887    0.0270036900    3.4298154677
H       -1.3145531382   -0.0511974120    1.9427886950
H        1.0754294483   -2.0435518848   -4.2125103772
H       -0.6834941186   -3.7360326924   -4.6956263032
H       -2.6668549388   -3.9029339243   -3.1878283624
H       -2.9635641065   -2.2789960864   -1.3497773097
H       -5.4986133524    1.9127743293   -0.3323587280
H       -4.8759194134    0.4887734118    0.5148909208
H       -3.7067836673    1.8384581232   -1.9535274138
H       -4.6180270700   -1.0406276788   -1.4814436620
H       -5.3736649654    0.2081152021   -2.4678002244
H       -3.8189828924   -0.4731776531   -2.9594687869
H        2.9620980544    0.0731953281    2.4464266145
H        0.1605856012    2.3075522000   -0.9073087383
H       -4.8945955879    3.3576600257    2.0683741826
H        1.9170464569    3.8691231760   -0.1909307261
H       -0.6886372482    5.4733673910    2.8371577566
H       -3.0217535113    4.7207547105    2.9659860549
H        1.5248986425    5.4182516054    1.7288438885
H        3.2527702143   -0.0154179884   -0.0223107694
48   
Dihedral (-135, 15) Energy -1439.272986790
C       -0.1157396673   -0.0381147088    0.1553311336
C       -0.0352127200    0.0392674476    1.5514874606
C        1.1921928259    0.2217545044    2.1900433580
C        2.3671718204    0.2975918215    1.4346404188
C        2.3125986028    0.1774307946    0.0440327673
C        1.0774390476    0.0052861089   -0.5910380784
S        1.0058477847   -0.0430066755   -2.3727706959
C       -0.2997092094   -1.2448784885   -2.5403283138
C       -0.2284751292   -2.2044087616   -3.5579624881
C       -1.1813836651   -3.2231964598   -3.6236122911
C       -2.1710620509   -3.3137152322   -2.6384008519
C       -2.2391054284   -2.3475713844   -1.6339203323
C       -1.3569963806   -1.2578188077   -1.6110841679
C       -1.4124660826   -0.1940505098   -0.5629551579
C       -2.2567409121    0.8775675918   -0.6758172244
C       -2.3115344262    2.0589092738    0.2481740130